9
	Energy:       4.1390592
C         -4.66377       -0.23369        0.03052
C         -3.42434        0.64598        0.09021
H         -4.61114       -0.90635       -0.85183
H         -5.57091        0.40118       -0.05436
H         -4.73931       -0.84823        0.95270
O         -2.28528       -0.16066        0.19710
H         -3.50175        1.31265        0.97777
H         -3.37263        1.25409       -0.84022
H         -1.51186        0.46018        0.23207
